# vtk DataFile Version 3.0
FEM4C Analysis Results: T6 Cantilever Beam
ASCII
DATASET UNSTRUCTURED_GRID

POINTS 1105 float
0.000000 0.000000 0.000000
0.031250 0.000000 0.000000
0.062500 0.000000 0.000000
0.093750 0.000000 0.000000
0.125000 0.000000 0.000000
0.156250 0.000000 0.000000
0.187500 0.000000 0.000000
0.218750 0.000000 0.000000
0.250000 0.000000 0.000000
0.281250 0.000000 0.000000
0.312500 0.000000 0.000000
0.343750 0.000000 0.000000
0.375000 0.000000 0.000000
0.406250 0.000000 0.000000
0.437500 0.000000 0.000000
0.468750 0.000000 0.000000
0.500000 0.000000 0.000000
0.531250 0.000000 0.000000
0.562500 0.000000 0.000000
0.593750 0.000000 0.000000
0.625000 0.000000 0.000000
0.656250 0.000000 0.000000
0.687500 0.000000 0.000000
0.718750 0.000000 0.000000
0.750000 0.000000 0.000000
0.781250 0.000000 0.000000
0.812500 0.000000 0.000000
0.843750 0.000000 0.000000
0.875000 0.000000 0.000000
0.906250 0.000000 0.000000
0.937500 0.000000 0.000000
0.968750 0.000000 0.000000
1.000000 0.000000 0.000000
0.000000 0.012500 0.000000
0.031250 0.012500 0.000000
0.062500 0.012500 0.000000
0.093750 0.012500 0.000000
0.125000 0.012500 0.000000
0.156250 0.012500 0.000000
0.187500 0.012500 0.000000
0.218750 0.012500 0.000000
0.250000 0.012500 0.000000
0.281250 0.012500 0.000000
0.312500 0.012500 0.000000
0.343750 0.012500 0.000000
0.375000 0.012500 0.000000
0.406250 0.012500 0.000000
0.437500 0.012500 0.000000
0.468750 0.012500 0.000000
0.500000 0.012500 0.000000
0.531250 0.012500 0.000000
0.562500 0.012500 0.000000
0.593750 0.012500 0.000000
0.625000 0.012500 0.000000
0.656250 0.012500 0.000000
0.687500 0.012500 0.000000
0.718750 0.012500 0.000000
0.750000 0.012500 0.000000
0.781250 0.012500 0.000000
0.812500 0.012500 0.000000
0.843750 0.012500 0.000000
0.875000 0.012500 0.000000
0.906250 0.012500 0.000000
0.937500 0.012500 0.000000
0.968750 0.012500 0.000000
1.000000 0.012500 0.000000
0.000000 0.025000 0.000000
0.031250 0.025000 0.000000
0.062500 0.025000 0.000000
0.093750 0.025000 0.000000
0.125000 0.025000 0.000000
0.156250 0.025000 0.000000
0.187500 0.025000 0.000000
0.218750 0.025000 0.000000
0.250000 0.025000 0.000000
0.281250 0.025000 0.000000
0.312500 0.025000 0.000000
0.343750 0.025000 0.000000
0.375000 0.025000 0.000000
0.406250 0.025000 0.000000
0.437500 0.025000 0.000000
0.468750 0.025000 0.000000
0.500000 0.025000 0.000000
0.531250 0.025000 0.000000
0.562500 0.025000 0.000000
0.593750 0.025000 0.000000
0.625000 0.025000 0.000000
0.656250 0.025000 0.000000
0.687500 0.025000 0.000000
0.718750 0.025000 0.000000
0.750000 0.025000 0.000000
0.781250 0.025000 0.000000
0.812500 0.025000 0.000000
0.843750 0.025000 0.000000
0.875000 0.025000 0.000000
0.906250 0.025000 0.000000
0.937500 0.025000 0.000000
0.968750 0.025000 0.000000
1.000000 0.025000 0.000000
0.000000 0.037500 0.000000
0.031250 0.037500 0.000000
0.062500 0.037500 0.000000
0.093750 0.037500 0.000000
0.125000 0.037500 0.000000
0.156250 0.037500 0.000000
0.187500 0.037500 0.000000
0.218750 0.037500 0.000000
0.250000 0.037500 0.000000
0.281250 0.037500 0.000000
0.312500 0.037500 0.000000
0.343750 0.037500 0.000000
0.375000 0.037500 0.000000
0.406250 0.037500 0.000000
0.437500 0.037500 0.000000
0.468750 0.037500 0.000000
0.500000 0.037500 0.000000
0.531250 0.037500 0.000000
0.562500 0.037500 0.000000
0.593750 0.037500 0.000000
0.625000 0.037500 0.000000
0.656250 0.037500 0.000000
0.687500 0.037500 0.000000
0.718750 0.037500 0.000000
0.750000 0.037500 0.000000
0.781250 0.037500 0.000000
0.812500 0.037500 0.000000
0.843750 0.037500 0.000000
0.875000 0.037500 0.000000
0.906250 0.037500 0.000000
0.937500 0.037500 0.000000
0.968750 0.037500 0.000000
1.000000 0.037500 0.000000
0.000000 0.050000 0.000000
0.031250 0.050000 0.000000
0.062500 0.050000 0.000000
0.093750 0.050000 0.000000
0.125000 0.050000 0.000000
0.156250 0.050000 0.000000
0.187500 0.050000 0.000000
0.218750 0.050000 0.000000
0.250000 0.050000 0.000000
0.281250 0.050000 0.000000
0.312500 0.050000 0.000000
0.343750 0.050000 0.000000
0.375000 0.050000 0.000000
0.406250 0.050000 0.000000
0.437500 0.050000 0.000000
0.468750 0.050000 0.000000
0.500000 0.050000 0.000000
0.531250 0.050000 0.000000
0.562500 0.050000 0.000000
0.593750 0.050000 0.000000
0.625000 0.050000 0.000000
0.656250 0.050000 0.000000
0.687500 0.050000 0.000000
0.718750 0.050000 0.000000
0.750000 0.050000 0.000000
0.781250 0.050000 0.000000
0.812500 0.050000 0.000000
0.843750 0.050000 0.000000
0.875000 0.050000 0.000000
0.906250 0.050000 0.000000
0.937500 0.050000 0.000000
0.968750 0.050000 0.000000
1.000000 0.050000 0.000000
0.000000 0.062500 0.000000
0.031250 0.062500 0.000000
0.062500 0.062500 0.000000
0.093750 0.062500 0.000000
0.125000 0.062500 0.000000
0.156250 0.062500 0.000000
0.187500 0.062500 0.000000
0.218750 0.062500 0.000000
0.250000 0.062500 0.000000
0.281250 0.062500 0.000000
0.312500 0.062500 0.000000
0.343750 0.062500 0.000000
0.375000 0.062500 0.000000
0.406250 0.062500 0.000000
0.437500 0.062500 0.000000
0.468750 0.062500 0.000000
0.500000 0.062500 0.000000
0.531250 0.062500 0.000000
0.562500 0.062500 0.000000
0.593750 0.062500 0.000000
0.625000 0.062500 0.000000
0.656250 0.062500 0.000000
0.687500 0.062500 0.000000
0.718750 0.062500 0.000000
0.750000 0.062500 0.000000
0.781250 0.062500 0.000000
0.812500 0.062500 0.000000
0.843750 0.062500 0.000000
0.875000 0.062500 0.000000
0.906250 0.062500 0.000000
0.937500 0.062500 0.000000
0.968750 0.062500 0.000000
1.000000 0.062500 0.000000
0.000000 0.075000 0.000000
0.031250 0.075000 0.000000
0.062500 0.075000 0.000000
0.093750 0.075000 0.000000
0.125000 0.075000 0.000000
0.156250 0.075000 0.000000
0.187500 0.075000 0.000000
0.218750 0.075000 0.000000
0.250000 0.075000 0.000000
0.281250 0.075000 0.000000
0.312500 0.075000 0.000000
0.343750 0.075000 0.000000
0.375000 0.075000 0.000000
0.406250 0.075000 0.000000
0.437500 0.075000 0.000000
0.468750 0.075000 0.000000
0.500000 0.075000 0.000000
0.531250 0.075000 0.000000
0.562500 0.075000 0.000000
0.593750 0.075000 0.000000
0.625000 0.075000 0.000000
0.656250 0.075000 0.000000
0.687500 0.075000 0.000000
0.718750 0.075000 0.000000
0.750000 0.075000 0.000000
0.781250 0.075000 0.000000
0.812500 0.075000 0.000000
0.843750 0.075000 0.000000
0.875000 0.075000 0.000000
0.906250 0.075000 0.000000
0.937500 0.075000 0.000000
0.968750 0.075000 0.000000
1.000000 0.075000 0.000000
0.000000 0.087500 0.000000
0.031250 0.087500 0.000000
0.062500 0.087500 0.000000
0.093750 0.087500 0.000000
0.125000 0.087500 0.000000
0.156250 0.087500 0.000000
0.187500 0.087500 0.000000
0.218750 0.087500 0.000000
0.250000 0.087500 0.000000
0.281250 0.087500 0.000000
0.312500 0.087500 0.000000
0.343750 0.087500 0.000000
0.375000 0.087500 0.000000
0.406250 0.087500 0.000000
0.437500 0.087500 0.000000
0.468750 0.087500 0.000000
0.500000 0.087500 0.000000
0.531250 0.087500 0.000000
0.562500 0.087500 0.000000
0.593750 0.087500 0.000000
0.625000 0.087500 0.000000
0.656250 0.087500 0.000000
0.687500 0.087500 0.000000
0.718750 0.087500 0.000000
0.750000 0.087500 0.000000
0.781250 0.087500 0.000000
0.812500 0.087500 0.000000
0.843750 0.087500 0.000000
0.875000 0.087500 0.000000
0.906250 0.087500 0.000000
0.937500 0.087500 0.000000
0.968750 0.087500 0.000000
1.000000 0.087500 0.000000
0.000000 0.100000 0.000000
0.031250 0.100000 0.000000
0.062500 0.100000 0.000000
0.093750 0.100000 0.000000
0.125000 0.100000 0.000000
0.156250 0.100000 0.000000
0.187500 0.100000 0.000000
0.218750 0.100000 0.000000
0.250000 0.100000 0.000000
0.281250 0.100000 0.000000
0.312500 0.100000 0.000000
0.343750 0.100000 0.000000
0.375000 0.100000 0.000000
0.406250 0.100000 0.000000
0.437500 0.100000 0.000000
0.468750 0.100000 0.000000
0.500000 0.100000 0.000000
0.531250 0.100000 0.000000
0.562500 0.100000 0.000000
0.593750 0.100000 0.000000
0.625000 0.100000 0.000000
0.656250 0.100000 0.000000
0.687500 0.100000 0.000000
0.718750 0.100000 0.000000
0.750000 0.100000 0.000000
0.781250 0.100000 0.000000
0.812500 0.100000 0.000000
0.843750 0.100000 0.000000
0.875000 0.100000 0.000000
0.906250 0.100000 0.000000
0.937500 0.100000 0.000000
0.968750 0.100000 0.000000
1.000000 0.100000 0.000000
0.015625 0.000000 0.000000
0.031250 0.006250 0.000000
0.015625 0.006250 0.000000
0.015625 0.012500 0.000000
0.000000 0.006250 0.000000
0.046875 0.000000 0.000000
0.062500 0.006250 0.000000
0.046875 0.006250 0.000000
0.046875 0.012500 0.000000
0.078125 0.000000 0.000000
0.093750 0.006250 0.000000
0.078125 0.006250 0.000000
0.078125 0.012500 0.000000
0.109375 0.000000 0.000000
0.125000 0.006250 0.000000
0.109375 0.006250 0.000000
0.109375 0.012500 0.000000
0.140625 0.000000 0.000000
0.156250 0.006250 0.000000
0.140625 0.006250 0.000000
0.140625 0.012500 0.000000
0.171875 0.000000 0.000000
0.187500 0.006250 0.000000
0.171875 0.006250 0.000000
0.171875 0.012500 0.000000
0.203125 0.000000 0.000000
0.218750 0.006250 0.000000
0.203125 0.006250 0.000000
0.203125 0.012500 0.000000
0.234375 0.000000 0.000000
0.250000 0.006250 0.000000
0.234375 0.006250 0.000000
0.234375 0.012500 0.000000
0.265625 0.000000 0.000000
0.281250 0.006250 0.000000
0.265625 0.006250 0.000000
0.265625 0.012500 0.000000
0.296875 0.000000 0.000000
0.312500 0.006250 0.000000
0.296875 0.006250 0.000000
0.296875 0.012500 0.000000
0.328125 0.000000 0.000000
0.343750 0.006250 0.000000
0.328125 0.006250 0.000000
0.328125 0.012500 0.000000
0.359375 0.000000 0.000000
0.375000 0.006250 0.000000
0.359375 0.006250 0.000000
0.359375 0.012500 0.000000
0.390625 0.000000 0.000000
0.406250 0.006250 0.000000
0.390625 0.006250 0.000000
0.390625 0.012500 0.000000
0.421875 0.000000 0.000000
0.437500 0.006250 0.000000
0.421875 0.006250 0.000000
0.421875 0.012500 0.000000
0.453125 0.000000 0.000000
0.468750 0.006250 0.000000
0.453125 0.006250 0.000000
0.453125 0.012500 0.000000
0.484375 0.000000 0.000000
0.500000 0.006250 0.000000
0.484375 0.006250 0.000000
0.484375 0.012500 0.000000
0.515625 0.000000 0.000000
0.531250 0.006250 0.000000
0.515625 0.006250 0.000000
[...]
POINT_DATA 1105
VECTORS Displacement float
0.000000e+00 0.000000e+00 0.000000e+00
-8.747565e-08 -4.586064e-08 0.000000e+00
-1.719574e-07 -1.303722e-07 0.000000e+00
-2.542576e-07 -2.670223e-07 0.000000e+00
-3.337850e-07 -4.543097e-07 0.000000e+00
-4.105163e-07 -6.904317e-07 0.000000e+00
-4.844559e-07 -9.736370e-07 0.000000e+00
-5.556054e-07 -1.302182e-06 0.000000e+00
-6.239647e-07 -1.674324e-06 0.000000e+00
-6.895339e-07 -2.088318e-06 0.000000e+00
-7.523129e-07 -2.542421e-06 0.000000e+00
-8.123017e-07 -3.034889e-06 0.000000e+00
-8.695004e-07 -3.563979e-06 0.000000e+00
-9.239089e-07 -4.127945e-06 0.000000e+00
-9.755272e-07 -4.725045e-06 0.000000e+00
-1.024355e-06 -5.353534e-06 0.000000e+00
-1.070393e-06 -6.011669e-06 0.000000e+00
-1.113641e-06 -6.697706e-06 0.000000e+00
-1.154099e-06 -7.409901e-06 0.000000e+00
-1.191766e-06 -8.146509e-06 0.000000e+00
-1.226643e-06 -8.905788e-06 0.000000e+00
-1.258730e-06 -9.685993e-06 0.000000e+00
-1.288027e-06 -1.048538e-05 0.000000e+00
-1.314534e-06 -1.130221e-05 0.000000e+00
-1.338250e-06 -1.213473e-05 0.000000e+00
-1.359177e-06 -1.298120e-05 0.000000e+00
-1.377313e-06 -1.383988e-05 0.000000e+00
-1.392659e-06 -1.470902e-05 0.000000e+00
-1.405215e-06 -1.558688e-05 0.000000e+00
-1.414980e-06 -1.647172e-05 0.000000e+00
-1.421960e-06 -1.736178e-05 0.000000e+00
-1.426274e-06 -1.825533e-05 0.000000e+00
-1.428251e-06 -1.915201e-05 0.000000e+00
0.000000e+00 0.000000e+00 0.000000e+00
-6.433544e-08 -3.690812e-08 0.000000e+00
-1.280701e-07 -1.215765e-07 0.000000e+00
-1.897969e-07 -2.585324e-07 0.000000e+00
-2.494404e-07 -4.461140e-07 0.000000e+00
-3.069886e-07 -6.825292e-07 0.000000e+00
-3.624434e-07 -9.660276e-07 0.000000e+00
-4.158055e-07 -1.294866e-06 0.000000e+00
-4.670751e-07 -1.667300e-06 0.000000e+00
-5.162520e-07 -2.081588e-06 0.000000e+00
-5.633362e-07 -2.535984e-06 0.000000e+00
-6.083278e-07 -3.028745e-06 0.000000e+00
-6.512268e-07 -3.558127e-06 0.000000e+00
-6.920332e-07 -4.122386e-06 0.000000e+00
-7.307469e-07 -4.719779e-06 0.000000e+00
-7.673680e-07 -5.348561e-06 0.000000e+00
-8.018965e-07 -6.006989e-06 0.000000e+00
-8.343323e-07 -6.693319e-06 0.000000e+00
-8.646755e-07 -7.405807e-06 0.000000e+00
-8.929261e-07 -8.142708e-06 0.000000e+00
-9.190840e-07 -8.902280e-06 0.000000e+00
-9.431493e-07 -9.682779e-06 0.000000e+00
-9.651219e-07 -1.048246e-05 0.000000e+00
-9.850020e-07 -1.129958e-05 0.000000e+00
-1.002789e-06 -1.213239e-05 0.000000e+00
-1.018484e-06 -1.297916e-05 0.000000e+00
-1.032086e-06 -1.383813e-05 0.000000e+00
-1.043596e-06 -1.470756e-05 0.000000e+00
-1.053013e-06 -1.558572e-05 0.000000e+00
-1.060337e-06 -1.647085e-05 0.000000e+00
-1.065572e-06 -1.736120e-05 0.000000e+00
-1.068714e-06 -1.825505e-05 0.000000e+00
-1.069792e-06 -1.915156e-05 0.000000e+00
0.000000e+00 0.000000e+00 0.000000e+00
-4.191740e-08 -3.013624e-08 0.000000e+00
-8.490457e-08 -1.152529e-07 0.000000e+00
-1.261212e-07 -2.524635e-07 0.000000e+00
-1.658830e-07 -4.402595e-07 0.000000e+00
-2.042475e-07 -6.768839e-07 0.000000e+00
-2.412173e-07 -9.605914e-07 0.000000e+00
-2.767921e-07 -1.289639e-06 0.000000e+00
-3.109717e-07 -1.662283e-06 0.000000e+00
-3.437563e-07 -2.076779e-06 0.000000e+00
-3.751459e-07 -2.531385e-06 0.000000e+00
-4.051403e-07 -3.024355e-06 0.000000e+00
-4.337396e-07 -3.553946e-06 0.000000e+00
-4.609438e-07 -4.118415e-06 0.000000e+00
-4.867530e-07 -4.716017e-06 0.000000e+00
-5.111671e-07 -5.345009e-06 0.000000e+00
-5.341860e-07 -6.003646e-06 0.000000e+00
-5.558099e-07 -6.690185e-06 0.000000e+00
-5.760387e-07 -7.402882e-06 0.000000e+00
-5.948724e-07 -8.139993e-06 0.000000e+00
-6.123110e-07 -8.899774e-06 0.000000e+00
-6.283546e-07 -9.680481e-06 0.000000e+00
-6.430030e-07 -1.048037e-05 0.000000e+00
-6.562563e-07 -1.129770e-05 0.000000e+00
-6.681146e-07 -1.213072e-05 0.000000e+00
-6.785778e-07 -1.297770e-05 0.000000e+00
-6.876459e-07 -1.383688e-05 0.000000e+00
-6.953189e-07 -1.470652e-05 0.000000e+00
-7.015968e-07 -1.558489e-05 0.000000e+00
-7.064794e-07 -1.647023e-05 0.000000e+00
-7.099582e-07 -1.736079e-05 0.000000e+00
-7.119554e-07 -1.825489e-05 0.000000e+00
-7.125901e-07 -1.915085e-05 0.000000e+00
0.000000e+00 0.000000e+00 0.000000e+00
-2.072201e-08 -2.625981e-08 0.000000e+00
-4.232571e-08 -1.114246e-07 0.000000e+00
-6.296049e-08 -2.488189e-07 0.000000e+00
-8.283907e-08 -4.367463e-07 0.000000e+00
-1.020201e-07 -6.734956e-07 0.000000e+00
-1.205048e-07 -9.573284e-07 0.000000e+00
-1.382923e-07 -1.286501e-06 0.000000e+00
-1.553821e-07 -1.659271e-06 0.000000e+00
-1.717744e-07 -2.073893e-06 0.000000e+00
-1.874692e-07 -2.528624e-06 0.000000e+00
-2.024664e-07 -3.021720e-06 0.000000e+00
-2.167661e-07 -3.551437e-06 0.000000e+00
-2.303682e-07 -4.116031e-06 0.000000e+00
-2.432728e-07 -4.713759e-06 0.000000e+00
-2.554798e-07 -5.342876e-06 0.000000e+00
-2.669893e-07 -6.001638e-06 0.000000e+00
-2.778012e-07 -6.688303e-06 0.000000e+00
-2.879156e-07 -7.401125e-06 0.000000e+00
-2.973325e-07 -8.138362e-06 0.000000e+00
-3.060518e-07 -8.898269e-06 0.000000e+00
-3.140735e-07 -9.679102e-06 0.000000e+00
-3.213978e-07 -1.047912e-05 0.000000e+00
-3.280244e-07 -1.129657e-05 0.000000e+00
-3.339536e-07 -1.212972e-05 0.000000e+00
-3.391852e-07 -1.297682e-05 0.000000e+00
-3.437192e-07 -1.383613e-05 0.000000e+00
-3.475557e-07 -1.470590e-05 0.000000e+00
-3.506946e-07 -1.558439e-05 0.000000e+00
-3.531354e-07 -1.646985e-05 0.000000e+00
-3.548680e-07 -1.736056e-05 0.000000e+00
-3.558333e-07 -1.825481e-05 0.000000e+00
-3.561375e-07 -1.915029e-05 0.000000e+00
0.000000e+00 0.000000e+00 0.000000e+00
-3.685684e-11 -2.498338e-08 0.000000e+00
-7.095236e-11 -1.101277e-07 0.000000e+00
-5.826439e-11 -2.476065e-07 0.000000e+00
-5.119054e-11 -4.355765e-07 0.000000e+00
-4.948819e-11 -6.723666e-07 0.000000e+00
-4.928354e-11 -9.562409e-07 0.000000e+00
-4.932511e-11 -1.285456e-06 0.000000e+00
-4.935690e-11 -1.658267e-06 0.000000e+00
-4.936681e-11 -2.072931e-06 0.000000e+00
-4.936855e-11 -2.527704e-06 0.000000e+00
-4.936854e-11 -3.020841e-06 0.000000e+00
-4.936842e-11 -3.550600e-06 0.000000e+00
-4.936836e-11 -4.115236e-06 0.000000e+00
-4.936835e-11 -4.713006e-06 0.000000e+00
-4.936835e-11 -5.342165e-06 0.000000e+00
-4.936835e-11 -6.000969e-06 0.000000e+00
-4.936835e-11 -6.687676e-06 0.000000e+00
-4.936835e-11 -7.400540e-06 0.000000e+00
-4.936835e-11 -8.137818e-06 0.000000e+00
-4.936835e-11 -8.897767e-06 0.000000e+00
-4.936834e-11 -9.678642e-06 0.000000e+00
-4.936834e-11 -1.047870e-05 0.000000e+00
-4.936845e-11 -1.129620e-05 0.000000e+00
-4.936903e-11 -1.212939e-05 0.000000e+00
-4.937081e-11 -1.297653e-05 0.000000e+00
-4.937277e-11 -1.383588e-05 0.000000e+00
-4.935941e-11 -1.470569e-05 0.000000e+00
-4.926218e-11 -1.558422e-05 0.000000e+00
-4.888898e-11 -1.646973e-05 0.000000e+00
-4.798411e-11 -1.736048e-05 0.000000e+00
-4.877544e-11 -1.825477e-05 0.000000e+00
-5.068979e-11 -1.915009e-05 0.000000e+00
0.000000e+00 0.000000e+00 0.000000e+00
2.063790e-08 -2.615531e-08 0.000000e+00
4.218601e-08 -1.114068e-07 0.000000e+00
6.284827e-08 -2.488291e-07 0.000000e+00
8.273759e-08 -4.367506e-07 0.000000e+00
1.019212e-07 -6.734976e-07 0.000000e+00
1.204062e-07 -9.573298e-07 0.000000e+00
1.381936e-07 -1.286503e-06 0.000000e+00
1.552834e-07 -1.659272e-06 0.000000e+00
1.716757e-07 -2.073894e-06 0.000000e+00
1.873705e-07 -2.528625e-06 0.000000e+00
2.023677e-07 -3.021721e-06 0.000000e+00
2.166673e-07 -3.551438e-06 0.000000e+00
2.302694e-07 -4.116032e-06 0.000000e+00
2.431740e-07 -4.713760e-06 0.000000e+00
2.553811e-07 -5.342877e-06 0.000000e+00
2.668905e-07 -6.001640e-06 0.000000e+00
2.777025e-07 -6.688304e-06 0.000000e+00
2.878169e-07 -7.401127e-06 0.000000e+00
2.972337e-07 -8.138363e-06 0.000000e+00
3.059530e-07 -8.898270e-06 0.000000e+00
3.139748e-07 -9.679103e-06 0.000000e+00
3.212990e-07 -1.047912e-05 0.000000e+00
3.279257e-07 -1.129657e-05 0.000000e+00
3.338548e-07 -1.212972e-05 0.000000e+00
3.390864e-07 -1.297682e-05 0.000000e+00
3.436204e-07 -1.383613e-05 0.000000e+00
3.474570e-07 -1.470590e-05 0.000000e+00
3.505960e-07 -1.558439e-05 0.000000e+00
3.530374e-07 -1.646985e-05 0.000000e+00
3.547713e-07 -1.736056e-05 0.000000e+00
3.557366e-07 -1.825480e-05 0.000000e+00
3.560366e-07 -1.915030e-05 0.000000e+00
0.000000e+00 0.000000e+00 0.000000e+00
4.177287e-08 -2.985724e-08 0.000000e+00
8.479218e-08 -1.152533e-07 0.000000e+00
1.260204e-07 -2.524807e-07 0.000000e+00
1.657837e-07 -4.402688e-07 0.000000e+00
2.041487e-07 -6.768894e-07 0.000000e+00
2.411186e-07 -9.605958e-07 0.000000e+00
2.766933e-07 -1.289643e-06 0.000000e+00
3.108730e-07 -1.662287e-06 0.000000e+00
3.436576e-07 -2.076783e-06 0.000000e+00
3.750471e-07 -2.531389e-06 0.000000e+00
4.050415e-07 -3.024359e-06 0.000000e+00
4.336409e-07 -3.553951e-06 0.000000e+00
4.608451e-07 -4.118419e-06 0.000000e+00
4.866543e-07 -4.716021e-06 0.000000e+00
5.110683e-07 -5.345013e-06 0.000000e+00
5.340873e-07 -6.003650e-06 0.000000e+00
5.557112e-07 -6.690189e-06 0.000000e+00
5.759400e-07 -7.402886e-06 0.000000e+00
5.947737e-07 -8.139997e-06 0.000000e+00
6.122123e-07 -8.899778e-06 0.000000e+00
6.282558e-07 -9.680486e-06 0.000000e+00
6.429043e-07 -1.048038e-05 0.000000e+00
6.561576e-07 -1.129770e-05 0.000000e+00
6.680159e-07 -1.213073e-05 0.000000e+00
6.784790e-07 -1.297770e-05 0.000000e+00
6.875471e-07 -1.383688e-05 0.000000e+00
6.952201e-07 -1.470653e-05 0.000000e+00
7.014981e-07 -1.558489e-05 0.000000e+00
7.063808e-07 -1.647023e-05 0.000000e+00
7.098594e-07 -1.736080e-05 0.000000e+00
7.118612e-07 -1.825488e-05 0.000000e+00
7.124899e-07 -1.915087e-05 0.000000e+00
0.000000e+00 0.000000e+00 0.000000e+00
6.397821e-08 -3.634291e-08 0.000000e+00
1.280141e-07 -1.216005e-07 0.000000e+00
1.897070e-07 -2.585552e-07 0.000000e+00
2.493432e-07 -4.461331e-07 0.000000e+00
3.068898e-07 -6.825442e-07 0.000000e+00
3.623446e-07 -9.660413e-07 0.000000e+00
4.157068e-07 -1.294879e-06 0.000000e+00
4.669763e-07 -1.667314e-06 0.000000e+00
5.161532e-07 -2.081601e-06 0.000000e+00
5.632375e-07 -2.535997e-06 0.000000e+00
6.082291e-07 -3.028758e-06 0.000000e+00
6.511281e-07 -3.558141e-06 0.000000e+00
6.919345e-07 -4.122400e-06 0.000000e+00
7.306482e-07 -4.719793e-06 0.000000e+00
7.672693e-07 -5.348575e-06 0.000000e+00
8.017977e-07 -6.007003e-06 0.000000e+00
8.342336e-07 -6.693333e-06 0.000000e+00
8.645768e-07 -7.405820e-06 0.000000e+00
8.928273e-07 -8.142722e-06 0.000000e+00
9.189852e-07 -8.902294e-06 0.000000e+00
9.430505e-07 -9.682792e-06 0.000000e+00
9.650232e-07 -1.048247e-05 0.000000e+00
9.849032e-07 -1.129959e-05 0.000000e+00
1.002691e-06 -1.213241e-05 0.000000e+00
1.018385e-06 -1.297917e-05 0.000000e+00
1.031987e-06 -1.383814e-05 0.000000e+00
1.043497e-06 -1.470758e-05 0.000000e+00
1.052914e-06 -1.558573e-05 0.000000e+00
1.060238e-06 -1.647086e-05 0.000000e+00
1.065471e-06 -1.736121e-05 0.000000e+00
1.068616e-06 -1.825505e-05 0.000000e+00
1.069689e-06 -1.915162e-05 0.000000e+00
0.000000e+00 0.000000e+00 0.000000e+00
8.798067e-08 -4.570740e-08 0.000000e+00
1.719148e-07 -1.303629e-07 0.000000e+00
2.541744e-07 -2.670574e-07 0.000000e+00
3.336874e-07 -4.543438e-07 0.000000e+00
4.104169e-07 -6.904621e-07 0.000000e+00
4.843568e-07 -9.736662e-07 0.000000e+00
5.555065e-07 -1.302211e-06 0.000000e+00
6.238659e-07 -1.674353e-06 0.000000e+00
6.894351e-07 -2.088347e-06 0.000000e+00
7.522142e-07 -2.542450e-06 0.000000e+00
8.122030e-07 -3.034918e-06 0.000000e+00
8.694017e-07 -3.564008e-06 0.000000e+00
9.238101e-07 -4.127974e-06 0.000000e+00
9.754284e-07 -4.725074e-06 0.000000e+00
1.024257e-06 -5.353563e-06 0.000000e+00
1.070295e-06 -6.011698e-06 0.000000e+00
1.113542e-06 -6.697735e-06 0.000000e+00
1.154000e-06 -7.409929e-06 0.000000e+00
1.191667e-06 -8.146538e-06 0.000000e+00
1.226545e-06 -8.905817e-06 0.000000e+00
1.258632e-06 -9.686022e-06 0.000000e+00
1.287928e-06 -1.048541e-05 0.000000e+00
1.314435e-06 -1.130224e-05 0.000000e+00
1.338152e-06 -1.213476e-05 0.000000e+00
1.359078e-06 -1.298123e-05 0.000000e+00
1.377214e-06 -1.383991e-05 0.000000e+00
1.392560e-06 -1.470905e-05 0.000000e+00
1.405116e-06 -1.558691e-05 0.000000e+00
1.414881e-06 -1.647175e-05 0.000000e+00
1.421859e-06 -1.736180e-05 0.000000e+00
1.426155e-06 -1.825535e-05 0.000000e+00
1.428187e-06 -1.915209e-05 0.000000e+00
-4.586438e-08 -2.097369e-08 0.000000e+00
-7.575506e-08 -4.111795e-08 0.000000e+00
-3.760282e-08 -1.606526e-08 0.000000e+00
-3.110331e-08 -1.236714e-08 0.000000e+00
0.000000e+00 0.000000e+00 0.000000e+00
-1.299061e-07 -8.155577e-08 0.000000e+00
-1.499116e-07 -1.256667e-07 0.000000e+00
-1.130707e-07 -7.679682e-08 0.000000e+00
-9.643373e-08 -7.264069e-08 0.000000e+00
-2.134193e-07 -1.922708e-07 0.000000e+00
-2.219124e-07 -2.624739e-07 0.000000e+00
-1.862011e-07 -1.876395e-07 0.000000e+00
-1.591921e-07 -1.836241e-07 0.000000e+00
-2.943441e-07 -3.544733e-07 0.000000e+00
-2.914969e-07 -4.499188e-07 0.000000e+00
-2.570027e-07 -3.499979e-07 0.000000e+00
-2.198794e-07 -3.461192e-07 0.000000e+00
-3.724732e-07 -5.663979e-07 0.000000e+00
-3.586368e-07 -6.861980e-07 0.000000e+00
-3.253650e-07 -5.620799e-07 0.000000e+00
-2.784749e-07 -5.583373e-07 0.000000e+00
-4.478084e-07 -8.262796e-07 0.000000e+00
-4.233340e-07 -9.695603e-07 0.000000e+00
-3.912833e-07 -8.221186e-07 0.000000e+00
-3.349762e-07 -8.185121e-07 0.000000e+00
-5.203529e-07 -1.132373e-06 0.000000e+00
-4.855898e-07 -1.298262e-06 0.000000e+00
-4.547598e-07 -1.128369e-06 0.000000e+00
-3.893847e-07 -1.124898e-06 0.000000e+00
-5.901072e-07 -1.482934e-06 0.000000e+00
-5.454042e-07 -1.670561e-06 0.000000e+00
-5.157949e-07 -1.479087e-06 0.000000e+00
-4.417005e-07 -1.475753e-06 0.000000e+00
-6.570715e-07 -1.876220e-06 0.000000e+00
-6.027773e-07 -2.084712e-06 0.000000e+00
-5.743886e-07 -1.872530e-06 0.000000e+00
-4.919237e-07 -1.869332e-06 0.000000e+00
-7.212456e-07 -2.310487e-06 0.000000e+00
-6.577089e-07 -2.538972e-06 0.000000e+00
-6.305410e-07 -2.306954e-06 0.000000e+00
-5.400543e-07 -2.303891e-06 0.000000e+00
-7.826295e-07 -2.783990e-06 0.000000e+00
-7.101992e-07 -3.031597e-06 0.000000e+00
-6.842519e-07 -2.780614e-06 0.000000e+00
-5.860922e-07 -2.777688e-06 0.000000e+00
-8.412233e-07 -3.294987e-06 0.000000e+00
-7.602480e-07 -3.560844e-06 0.000000e+00
-7.355214e-07 -3.291768e-06 0.000000e+00
-6.300376e-07 -3.288977e-06 0.000000e+00
-8.970269e-07 -3.841733e-06 0.000000e+00
-8.078554e-07 -4.124967e-06 0.000000e+00
-7.843496e-07 -3.838670e-06 0.000000e+00
-6.718902e-07 -3.836016e-06 0.000000e+00
-9.500403e-07 -4.422484e-06 0.000000e+00
-8.530214e-07 -4.722224e-06 0.000000e+00
-8.307363e-07 -4.419579e-06 0.000000e+00
-7.116503e-07 -4.417060e-06 0.000000e+00
-1.000263e-06 -5.035497e-06 0.000000e+00
-8.957460e-07 -5.350870e-06 0.000000e+00
-8.746816e-07 -5.032748e-06 0.000000e+00
-7.493177e-07 -5.030366e-06 0.000000e+00
-1.047697e-06 -5.679027e-06 0.000000e+00
-9.360292e-07 -6.009162e-06 0.000000e+00
-9.161855e-07 -5.676435e-06 0.000000e+00
-7.848925e-07 -5.674189e-06 0.000000e+00
-1.092339e-06 -6.351330e-06 0.000000e+00
-9.738710e-07 -6.695356e-06 0.000000e+00
-9.552480e-07 -6.348896e-06 0.000000e+00
-8.183746e-07 -6.346786e-06 0.000000e+00
-1.134192e-06 -7.050664e-06 0.000000e+00
-1.009271e-06 -7.407707e-06 0.000000e+00
-9.918691e-07 -7.048386e-06 0.000000e+00
-8.497641e-07 -7.046412e-06 0.000000e+00
-1.173255e-06 -7.775284e-06 0.000000e+00
-1.042230e-06 -8.144473e-06 0.000000e+00
-1.026049e-06 -7.773163e-06 0.000000e+00
-8.790610e-07 -7.771325e-06 0.000000e+00
-1.209527e-06 -8.523446e-06 0.000000e+00
-1.072748e-06 -8.903909e-06 0.000000e+00
-1.057787e-06 -8.521482e-06 0.000000e+00
-9.062652e-07 -8.519780e-06 0.000000e+00
-1.243009e-06 -9.293406e-06 0.000000e+00
-1.100824e-06 -9.684271e-06 0.000000e+00
-1.087084e-06 -9.291599e-06 0.000000e+00
-9.313768e-07 -9.290033e-06 0.000000e+00
-1.273701e-06 -1.008342e-05 0.000000e+00
-1.126459e-06 -1.048382e-05 0.000000e+00
-1.113939e-06 -1.008177e-05 0.000000e+00
-9.543958e-07 -1.008034e-05 0.000000e+00
-1.301603e-06 -1.089175e-05 0.000000e+00
-1.149652e-06 -1.130080e-05 0.000000e+00
-1.138353e-06 -1.089025e-05 0.000000e+00
-9.753222e-07 -1.088896e-05 0.000000e+00
-1.326714e-06 -1.171664e-05 0.000000e+00
-1.170404e-06 -1.213348e-05 0.000000e+00
-1.160326e-06 -1.171530e-05 0.000000e+00
-9.941559e-07 -1.171414e-05 0.000000e+00
-1.349036e-06 -1.255635e-05 0.000000e+00
-1.188715e-06 -1.298011e-05 0.000000e+00
-1.179857e-06 -1.255517e-05 0.000000e+00
-1.010897e-06 -1.255415e-05 0.000000e+00
-1.368567e-06 -1.340914e-05 0.000000e+00
-1.204584e-06 -1.383894e-05 0.000000e+00
-1.196947e-06 -1.340812e-05 0.000000e+00
-1.025545e-06 -1.340724e-05 0.000000e+00
-1.385308e-06 -1.427327e-05 0.000000e+00
-1.218012e-06 -1.470824e-05 0.000000e+00
-1.211596e-06 -1.427241e-05 0.000000e+00
-1.038101e-06 -1.427166e-05 0.000000e+00
-1.399259e-06 -1.514699e-05 0.000000e+00
-1.228998e-06 -1.558626e-05 0.000000e+00
-1.223803e-06 -1.514629e-05 0.000000e+00
-1.048564e-06 -1.514567e-05 0.000000e+00
-1.410420e-06 -1.602856e-05 0.000000e+00
-1.237543e-06 -1.647125e-05 0.000000e+00
-1.233568e-06 -1.602801e-05 0.000000e+00
-1.056935e-06 -1.602753e-05 0.000000e+00
-1.418791e-06 -1.691623e-05 0.000000e+00
-1.243654e-06 -1.736147e-05 0.000000e+00
-1.240894e-06 -1.691583e-05 0.000000e+00
-1.063214e-06 -1.691549e-05 0.000000e+00
-1.424411e-06 -1.780824e-05 0.000000e+00
-1.247377e-06 -1.825518e-05 0.000000e+00
-1.245804e-06 -1.780800e-05 0.000000e+00
-1.067404e-06 -1.780780e-05 0.000000e+00
-1.427543e-06 -1.870319e-05 0.000000e+00
-1.248850e-06 -1.915183e-05 0.000000e+00
-1.248360e-06 -1.870307e-05 0.000000e+00
-1.069446e-06 -1.870296e-05 0.000000e+00
-5.286586e-08 -3.314910e-08 0.000000e+00
-2.536415e-08 -9.577185e-09 0.000000e+00
-2.002370e-08 -7.478652e-09 0.000000e+00
0.000000e+00 0.000000e+00 0.000000e+00
-1.064039e-07 -1.181084e-07 0.000000e+00
-7.996050e-08 -6.909852e-08 0.000000e+00
-6.367091e-08 -6.615270e-08 0.000000e+00
-1.578789e-07 -2.551957e-07 0.000000e+00
-1.323677e-07 -1.802224e-07 0.000000e+00
-1.057045e-07 -1.774335e-07 0.000000e+00
-2.075814e-07 -4.428940e-07 0.000000e+00
-1.829481e-07 -3.428372e-07 0.000000e+00
-1.461771e-07 -3.401522e-07 0.000000e+00
-2.555377e-07 -6.794243e-07 0.000000e+00
-2.317768e-07 -5.551708e-07 0.000000e+00
-1.852390e-07 -5.525805e-07 0.000000e+00
-3.017500e-07 -9.630377e-07 0.000000e+00
-2.788611e-07 -8.154606e-07 0.000000e+00
-2.229062e-07 -8.129644e-07 0.000000e+00
-3.462185e-07 -1.291991e-06 0.000000e+00
-3.242015e-07 -1.121962e-06 0.000000e+00
-2.591785e-07 -1.119560e-06 0.000000e+00
-3.889431e-07 -1.664541e-06 0.000000e+00
-3.677980e-07 -1.472931e-06 0.000000e+00
-2.940558e-07 -1.470623e-06 0.000000e+00
-4.299238e-07 -2.078943e-06 0.000000e+00
-4.096507e-07 -1.866625e-06 0.000000e+00
-3.275379e-07 -1.864412e-06 0.000000e+00
-4.691607e-07 -2.533454e-06 0.000000e+00
-4.497595e-07 -2.301300e-06 0.000000e+00
-3.596250e-07 -2.299181e-06 0.000000e+00
-5.066537e-07 -3.026330e-06 0.000000e+00
-4.881245e-07 -2.775212e-06 0.000000e+00
-3.903169e-07 -2.773186e-06 0.000000e+00
-5.424029e-07 -3.555828e-06 0.000000e+00
-5.247456e-07 -3.286616e-06 0.000000e+00
-4.196138e-07 -3.284685e-06 0.000000e+00
-5.764082e-07 -4.120202e-06 0.000000e+00
-5.596228e-07 -3.833770e-06 0.000000e+00
-4.475156e-07 -3.831933e-06 0.000000e+00
-6.086696e-07 -4.717710e-06 0.000000e+00
-5.927562e-07 -4.414930e-06 0.000000e+00
-4.740223e-07 -4.413187e-06 0.000000e+00
-6.391872e-07 -5.346607e-06 0.000000e+00
-6.241457e-07 -5.028350e-06 0.000000e+00
-4.991339e-07 -5.026701e-06 0.000000e+00
-6.679609e-07 -6.005150e-06 0.000000e+00
-6.537913e-07 -5.672288e-06 0.000000e+00
-5.228504e-07 -5.670734e-06 0.000000e+00
-6.949908e-07 -6.691595e-06 0.000000e+00
-6.816931e-07 -6.345000e-06 0.000000e+00
-5.451718e-07 -6.343540e-06 0.000000e+00
-7.202768e-07 -7.404198e-06 0.000000e+00
-7.078510e-07 -7.044742e-06 0.000000e+00
-5.660982e-07 -7.043376e-06 0.000000e+00
-7.438189e-07 -8.141215e-06 0.000000e+00
-7.322651e-07 -7.769770e-06 0.000000e+00
-5.856294e-07 -7.768498e-06 0.000000e+00
-7.656172e-07 -8.900902e-06 0.000000e+00
-7.549353e-07 -8.518340e-06 0.000000e+00
-6.037656e-07 -8.517162e-06 0.000000e+00
-7.856716e-07 -9.681515e-06 0.000000e+00
-7.758616e-07 -9.288708e-06 0.000000e+00
-6.205066e-07 -9.287624e-06 0.000000e+00